<?xml version="1.0" encoding="UTF-8"?>

<!-- generated on 2025-05-23 14:26:51 by Eclipse SUMO sumo Version 1.21.0
<sumoConfiguration xmlns:xsi="http://www.w3.org/2001/XMLSchema-instance" xsi:noNamespaceSchemaLocation="http://sumo.dlr.de/xsd/sumoConfiguration.xsd">

    <input>
        <net-file value="chatt.net.xml"/>
        <route-files value="chatt.rou.xml"/>
        <additional-files value="Edge.add.xml"/>
    </input>

    <time>
        <begin value="28800"/>
        <end value="32400"/>
        <step-length value="1"/>
    </time>

    <report>
        <no-warnings value="true"/>
        <no-step-log value="true"/>
    </report>

    <traci_server>
        <remote-port value="64578"/>
    </traci_server>

    <random_number>
        <seed value="812"/>
    </random_number>

    <gui_only>
        <start value="t"/>
    </gui_only>

</sumoConfiguration>
-->

<meandata xmlns:xsi="http://www.w3.org/2001/XMLSchema-instance" xsi:noNamespaceSchemaLocation="http://sumo.dlr.de/xsd/meandata_file.xsd">
    <interval begin="28800.00" end="32400.00" id="1">
        <edge id="-280" sampledSeconds="10786.52" traveltime="13.14" overlapTraveltime="13.93" density="107.74" laneDensity="35.91" occupancy="16.84" waitingTime="7118.00" timeLoss="9110.81" speed="2.36" speedRelative="0.15" departed="0" arrived="0" entered="776" left="773" laneChangedFrom="34" laneChangedTo="34"/>
        <edge id="-2801" sampledSeconds="22625.98" traveltime="28.89" overlapTraveltime="29.48" density="17.86" laneDensity="8.93" occupancy="4.41" waitingTime="649.55" timeLoss="5088.04" speed="12.11" speedRelative="0.77" departed="784" arrived="0" entered="0" left="776" laneChangedFrom="292" laneChangedTo="292"/>
        <edge id="-281" sampledSeconds="2129.85" traveltime="1.95" overlapTraveltime="2.30" density="22.86" laneDensity="7.62" occupancy="3.18" waitingTime="0.00" timeLoss="306.00" speed="13.40" speedRelative="0.85" departed="0" arrived="0" entered="926" left="924" laneChangedFrom="124" laneChangedTo="124"/>
        <edge id="-282" sampledSeconds="52.77" traveltime="0.82" overlapTraveltime="1.26" density="1.76" laneDensity="1.76" occupancy="0.57" waitingTime="0.00" timeLoss="28.05" speed="10.62" speedRelative="0.46" departed="0" arrived="45" entered="45" left="0" laneChangedFrom="0" laneChangedTo="0"/>
        <edge id="-283" sampledSeconds="539.05" traveltime="5.40" overlapTraveltime="5.69" density="2.06" laneDensity="2.06" occupancy="0.96" waitingTime="0.00" timeLoss="215.64" speed="13.69" speedRelative="0.59" departed="0" arrived="96" entered="96" left="0" laneChangedFrom="0" laneChangedTo="0"/>
        <edge id="-284" sampledSeconds="871.15" traveltime="1.73" overlapTraveltime="2.08" density="10.18" laneDensity="5.09" occupancy="2.10" waitingTime="0.00" timeLoss="99.96" speed="13.83" speedRelative="0.88" departed="0" arrived="0" entered="419" left="419" laneChangedFrom="13" laneChangedTo="13"/>
        <edge id="-2841" sampledSeconds="1445.68" traveltime="3.09" overlapTraveltime="3.45" density="9.05" laneDensity="3.02" occupancy="1.35" waitingTime="19.00" timeLoss="114.64" speed="14.31" speedRelative="0.91" departed="0" arrived="0" entered="419" left="419" laneChangedFrom="28" laneChangedTo="28"/>
        <edge id="-285" sampledSeconds="22963.56" traveltime="22.76" overlapTraveltime="23.34" density="75.58" laneDensity="18.89" occupancy="9.28" waitingTime="14647.00" timeLoss="17994.28" speed="3.83" speedRelative="0.21" departed="0" arrived="0" entered="988" left="972" laneChangedFrom="220" laneChangedTo="220"/>
        <edge id="-2851" sampledSeconds="5711.26" traveltime="5.47" overlapTraveltime="5.78" density="19.43" laneDensity="6.48" occupancy="3.03" waitingTime="0.00" timeLoss="915.49" speed="14.99" speedRelative="0.84" departed="0" arrived="0" entered="988" left="988" laneChangedFrom="223" laneChangedTo="223"/>
        <edge id="-286" sampledSeconds="11537.00" traveltime="10.16" overlapTraveltime="11.12" density="46.96" laneDensity="9.39" occupancy="4.35" waitingTime="3156.00" timeLoss="6637.07" speed="6.59" speedRelative="0.42" departed="0" arrived="0" entered="1038" left="1035" laneChangedFrom="125" laneChangedTo="125"/>
        <edge id="-287" sampledSeconds="6046.35" traveltime="19.18" overlapTraveltime="19.41" density="4.53" laneDensity="2.27" occupancy="1.11" waitingTime="0.00" timeLoss="1025.94" speed="19.35" speedRelative="0.83" departed="0" arrived="312" entered="312" left="0" laneChangedFrom="6" laneChangedTo="6"/>
        <edge id="-288" sampledSeconds="3951.72" traveltime="5.87" overlapTraveltime="6.17" density="13.05" laneDensity="6.52" occupancy="3.05" waitingTime="0.00" timeLoss="744.06" speed="14.44" speedRelative="0.81" departed="0" arrived="0" entered="642" left="637" laneChangedFrom="32" laneChangedTo="32"/>
        <edge id="-2881" sampledSeconds="7496.30" traveltime="10.60" overlapTraveltime="11.85" density="25.61" laneDensity="8.54" occupancy="4.02" waitingTime="1723.00" timeLoss="4377.62" speed="7.29" speedRelative="0.41" departed="0" arrived="0" entered="637" left="625" laneChangedFrom="35" laneChangedTo="35"/>
        <edge id="-289" sampledSeconds="5786.72" traveltime="15.10" overlapTraveltime="15.33" density="5.54" laneDensity="2.77" occupancy="1.35" waitingTime="0.00" timeLoss="986.21" speed="19.25" speedRelative="0.83" departed="0" arrived="378" entered="378" left="0" laneChangedFrom="12" laneChangedTo="12"/>
        <edge id="-290" sampledSeconds="2481.08" traveltime="1.71" overlapTraveltime="2.69" density="35.78" laneDensity="11.93" occupancy="4.25" waitingTime="648.00" timeLoss="1318.54" speed="9.03" speedRelative="0.45" departed="0" arrived="0" entered="924" left="924" laneChangedFrom="133" laneChangedTo="133"/>
        <edge id="-291" sampledSeconds="0.00" departed="0" arrived="0" entered="0" left="0" laneChangedFrom="0" laneChangedTo="0"/>
        <edge id="-292" sampledSeconds="42189.31" traveltime="61.47" overlapTraveltime="62.56" density="33.16" laneDensity="11.05" occupancy="5.48" waitingTime="20639.85" timeLoss="31474.37" speed="5.73" speedRelative="0.25" departed="689" arrived="0" entered="0" left="678" laneChangedFrom="679" laneChangedTo="679"/>
        <edge id="-293" sampledSeconds="4560.19" traveltime="6.88" overlapTraveltime="7.55" density="18.76" laneDensity="9.38" occupancy="4.37" waitingTime="771.00" timeLoss="2175.33" speed="9.60" speedRelative="0.47" departed="0" arrived="0" entered="604" left="603" laneChangedFrom="91" laneChangedTo="91"/>
        <edge id="-294" sampledSeconds="187.02" traveltime="3.73" overlapTraveltime="4.04" density="1.06" laneDensity="1.06" occupancy="0.48" waitingTime="0.00" timeLoss="80.11" speed="13.32" speedRelative="0.57" departed="0" arrived="47" entered="47" left="0" laneChangedFrom="0" laneChangedTo="0"/>
        <edge id="-295" sampledSeconds="2434.12" traveltime="2.93" overlapTraveltime="3.19" density="13.30" laneDensity="6.65" occupancy="3.05" waitingTime="0.00" timeLoss="318.35" speed="17.48" speedRelative="0.86" departed="0" arrived="773" entered="773" left="0" laneChangedFrom="3" laneChangedTo="3"/>
        <edge id="-296" sampledSeconds="671.88" traveltime="7.19" overlapTraveltime="7.43" density="1.74" laneDensity="1.74" occupancy="0.82" waitingTime="0.00" timeLoss="233.35" speed="15.12" speedRelative="0.65" departed="0" arrived="91" entered="91" left="0" laneChangedFrom="0" laneChangedTo="0"/>
        <edge id="-297" sampledSeconds="3690.55" traveltime="11.72" overlapTraveltime="12.49" density="53.23" laneDensity="26.61" occupancy="12.72" waitingTime="2615.00" timeLoss="3290.40" speed="1.94" speedRelative="0.10" departed="0" arrived="0" entered="297" left="294" laneChangedFrom="19" laneChangedTo="19"/>
        <edge id="-298" sampledSeconds="5216.46" traveltime="5.83" overlapTraveltime="6.28" density="21.45" laneDensity="7.15" occupancy="3.37" waitingTime="916.00" timeLoss="2173.03" speed="11.55" speedRelative="0.57" departed="0" arrived="0" entered="831" left="830" laneChangedFrom="34" laneChangedTo="34"/>
        <edge id="-299" sampledSeconds="5474.99" traveltime="13.59" overlapTraveltime="13.82" density="6.40" laneDensity="6.40" occupancy="3.09" waitingTime="0.00" timeLoss="1353.66" speed="17.54" speedRelative="0.75" departed="0" arrived="397" entered="398" left="0" laneChangedFrom="0" laneChangedTo="0"/>
        <edge id="-300" sampledSeconds="11090.87" traveltime="10.88" overlapTraveltime="11.55" density="45.14" laneDensity="11.28" occupancy="5.40" waitingTime="3881.00" timeLoss="6519.84" speed="6.34" speedRelative="0.40" departed="0" arrived="0" entered="963" left="956" laneChangedFrom="155" laneChangedTo="155"/>
        <edge id="-301" sampledSeconds="530.88" traveltime="4.87" overlapTraveltime="5.15" density="2.20" laneDensity="1.10" occupancy="0.51" waitingTime="0.00" timeLoss="210.63" speed="13.97" speedRelative="0.60" departed="0" arrived="104" entered="104" left="0" laneChangedFrom="0" laneChangedTo="0"/>
        <edge id="-302" sampledSeconds="2126.99" traveltime="1.51" overlapTraveltime="2.15" density="43.09" laneDensity="21.55" occupancy="7.91" waitingTime="0.00" timeLoss="610.87" speed="8.72" speedRelative="0.55" departed="0" arrived="0" entered="992" left="992" laneChangedFrom="8" laneChangedTo="8"/>
        <edge id="-303" sampledSeconds="698.62" traveltime="8.66" overlapTraveltime="8.89" density="1.26" laneDensity="1.26" occupancy="0.60" waitingTime="0.00" timeLoss="164.42" speed="17.96" speedRelative="0.77" departed="0" arrived="79" entered="79" left="0" laneChangedFrom="0" laneChangedTo="0"/>
        <edge id="-304" sampledSeconds="7471.05" traveltime="26.65" overlapTraveltime="26.99" density="5.35" laneDensity="2.68" occupancy="1.32" waitingTime="0.00" timeLoss="482.04" speed="14.56" speedRelative="0.92" departed="0" arrived="275" entered="282" left="0" laneChangedFrom="70" laneChangedTo="70"/>
        <edge id="-305" sampledSeconds="9970.05" traveltime="22.29" overlapTraveltime="22.56" density="7.00" laneDensity="3.50" occupancy="1.72" waitingTime="0.00" timeLoss="1146.09" speed="17.76" speedRelative="0.88" departed="0" arrived="442" entered="444" left="0" laneChangedFrom="49" laneChangedTo="49"/>
        <edge id="-306" sampledSeconds="746.46" traveltime="2.84" overlapTraveltime="3.15" density="5.34" laneDensity="5.34" occupancy="2.37" waitingTime="0.00" timeLoss="292.95" speed="13.93" speedRelative="0.60" departed="0" arrived="241" entered="241" left="0" laneChangedFrom="0" laneChangedTo="0"/>
        <edge id="-307" sampledSeconds="3180.39" traveltime="2.90" overlapTraveltime="3.30" density="25.08" laneDensity="12.54" occupancy="5.46" waitingTime="25.00" timeLoss="652.98" speed="12.19" speedRelative="0.77" departed="0" arrived="0" entered="964" left="964" laneChangedFrom="31" laneChangedTo="31"/>
        <edge id="-308" sampledSeconds="27119.51" traveltime="65.16" overlapTraveltime="66.04" density="19.04" laneDensity="6.35" occupancy="3.15" waitingTime="14084.00" timeLoss="18852.42" speed="6.07" speedRelative="0.30" departed="417" arrived="0" entered="0" left="410" laneChangedFrom="420" laneChangedTo="420"/>
        <edge id="-309" sampledSeconds="1435.95" traveltime="35.76" overlapTraveltime="36.99" density="8.16" laneDensity="4.08" occupancy="2.00" waitingTime="987.00" timeLoss="1333.96" speed="1.46" speedRelative="0.06" departed="43" arrived="0" entered="0" left="42" laneChangedFrom="22" laneChangedTo="22"/>
        <edge id="-310" sampledSeconds="38757.59" traveltime="50.30" overlapTraveltime="51.48" density="20.90" laneDensity="5.23" occupancy="2.59" waitingTime="11035.00" timeLoss="21601.42" speed="10.10" speedRelative="0.43" departed="765" arrived="0" entered="0" left="757" laneChangedFrom="1461" laneChangedTo="1461"/>
        <edge id="-311" sampledSeconds="0.00" departed="0" arrived="0" entered="0" left="0" laneChangedFrom="0" laneChangedTo="0"/>
        <edge id="-312" sampledSeconds="4749.02" traveltime="9.38" overlapTraveltime="9.85" density="25.95" laneDensity="8.65" occupancy="4.21" waitingTime="724.00" timeLoss="3407.92" speed="5.67" speedRelative="0.28" departed="531" arrived="0" entered="0" left="529" laneChangedFrom="85" laneChangedTo="85"/>
        <edge id="-313" sampledSeconds="2270.96" traveltime="3.84" overlapTraveltime="4.87" density="24.37" laneDensity="8.12" occupancy="3.46" waitingTime="751.00" timeLoss="1324.75" speed="6.34" speedRelative="0.40" departed="0" arrived="0" entered="466" left="466" laneChangedFrom="1" laneChangedTo="1"/>
        <edge id="-314" sampledSeconds="62.29" traveltime="1.78" overlapTraveltime="2.31" density="1.25" laneDensity="1.25" occupancy="0.46" waitingTime="0.00" timeLoss="40.30" speed="8.17" speedRelative="0.35" departed="0" arrived="28" entered="28" left="0" laneChangedFrom="0" laneChangedTo="0"/>
        <edge id="-315" sampledSeconds="5468.77" traveltime="5.59" overlapTraveltime="5.93" density="18.69" laneDensity="6.23" occupancy="2.94" waitingTime="0.00" timeLoss="389.07" speed="14.54" speedRelative="0.92" departed="0" arrived="0" entered="922" left="922" laneChangedFrom="161" laneChangedTo="161"/>
        <edge id="-3151" sampledSeconds="5179.50" traveltime="5.18" overlapTraveltime="5.62" density="24.83" laneDensity="4.97" occupancy="2.31" waitingTime="689.00" timeLoss="1472.13" speed="11.20" speedRelative="0.71" departed="0" arrived="0" entered="922" left="922" laneChangedFrom="71" laneChangedTo="71"/>
        <edge id="-316" sampledSeconds="0.00" departed="0" arrived="0" entered="0" left="0" laneChangedFrom="0" laneChangedTo="0"/>
        <edge id="-317" sampledSeconds="2073.31" traveltime="104.90" overlapTraveltime="68.53" density="69.14" laneDensity="34.57" occupancy="17.02" waitingTime="1873.00" timeLoss="2040.42" speed="0.19" speedRelative="0.01" departed="49" arrived="0" entered="0" left="49" laneChangedFrom="27" laneChangedTo="27"/>
        <edge id="-318" sampledSeconds="3605.12" traveltime="34.67" overlapTraveltime="36.06" density="13.77" laneDensity="6.88" occupancy="3.38" waitingTime="2165.00" timeLoss="3217.30" speed="2.16" speedRelative="0.09" departed="107" arrived="0" entered="0" left="107" laneChangedFrom="11" laneChangedTo="11"/>
        <edge id="-319" sampledSeconds="18923.65" traveltime="121.86" overlapTraveltime="122.70" density="76.97" laneDensity="25.66" occupancy="12.77" waitingTime="16342.00" timeLoss="18379.20" speed="0.60" speedRelative="0.03" departed="167" arrived="0" entered="0" left="163" laneChangedFrom="162" laneChangedTo="162"/>
        <edge id="-320" sampledSeconds="0.00" departed="0" arrived="0" entered="0" left="0" laneChangedFrom="0" laneChangedTo="0"/>
        <edge id="-321" sampledSeconds="3986.42" traveltime="3.76" overlapTraveltime="4.33" density="80.77" laneDensity="16.15" occupancy="7.13" waitingTime="1925.00" timeLoss="2873.11" speed="4.32" speedRelative="0.27" departed="0" arrived="0" entered="922" left="918" laneChangedFrom="20" laneChangedTo="20"/>
        <edge id="-322" sampledSeconds="1270.18" traveltime="2.19" overlapTraveltime="2.57" density="11.50" laneDensity="5.75" occupancy="2.47" waitingTime="9.00" timeLoss="122.97" speed="13.88" speedRelative="0.88" departed="0" arrived="0" entered="494" left="494" laneChangedFrom="10" laneChangedTo="10"/>
        <edge id="-3221" sampledSeconds="4124.01" traveltime="8.00" overlapTraveltime="8.35" density="9.86" laneDensity="4.93" occupancy="2.36" waitingTime="0.00" timeLoss="284.72" speed="14.51" speedRelative="0.92" departed="0" arrived="0" entered="494" left="494" laneChangedFrom="62" laneChangedTo="62"/>
        <edge id="-323" sampledSeconds="1208.13" traveltime="2.04" overlapTraveltime="2.57" density="21.07" laneDensity="21.07" occupancy="8.07" waitingTime="0.00" timeLoss="781.39" speed="8.15" speedRelative="0.35" departed="0" arrived="498" entered="498" left="0" laneChangedFrom="0" laneChangedTo="0"/>
        <edge id="-324" sampledSeconds="30684.28" traveltime="266.61" overlapTraveltime="268.12" density="76.33" laneDensity="38.16" occupancy="19.04" waitingTime="27139.00" timeLoss="30062.98" speed="0.44" speedRelative="0.02" departed="122" arrived="0" entered="0" left="114" laneChangedFrom="78" laneChangedTo="78" teleported="1"/>
        <edge id="-325" sampledSeconds="727.52" traveltime="32.59" overlapTraveltime="34.16" density="1.31" laneDensity="0.65" occupancy="0.32" waitingTime="347.00" timeLoss="570.25" speed="4.67" speedRelative="0.20" departed="22" arrived="0" entered="0" left="22" laneChangedFrom="3" laneChangedTo="3"/>
        <edge id="-326" sampledSeconds="14771.41" traveltime="45.86" overlapTraveltime="46.64" density="105.92" laneDensity="26.48" occupancy="13.07" waitingTime="11092.00" timeLoss="14066.92" speed="0.94" speedRelative="0.04" departed="363" arrived="0" entered="0" left="351" laneChangedFrom="450" laneChangedTo="450"/>
        <edge id="-327" sampledSeconds="3729.14" traveltime="3.67" overlapTraveltime="4.27" density="23.61" laneDensity="11.81" occupancy="5.28" waitingTime="258.00" timeLoss="998.17" speed="11.45" speedRelative="0.73" departed="0" arrived="0" entered="877" left="870" laneChangedFrom="34" laneChangedTo="34"/>
        <edge id="-3271" sampledSeconds="4766.76" traveltime="4.96" overlapTraveltime="5.50" density="54.60" laneDensity="18.20" occupancy="7.88" waitingTime="1878.00" timeLoss="3128.08" speed="5.32" speedRelative="0.34" departed="0" arrived="0" entered="870" left="866" laneChangedFrom="43" laneChangedTo="43"/>
        <edge id="-328" sampledSeconds="6161.38" traveltime="14.31" overlapTraveltime="15.36" density="48.59" laneDensity="12.15" occupancy="5.82" waitingTime="3667.00" timeLoss="5059.24" speed="2.62" speedRelative="0.17" departed="0" arrived="0" entered="402" left="400" laneChangedFrom="31" laneChangedTo="31"/>
        <edge id="-329" sampledSeconds="134.36" traveltime="0.83" overlapTraveltime="1.42" density="5.99" laneDensity="5.99" occupancy="1.69" waitingTime="0.00" timeLoss="88.51" speed="7.89" speedRelative="0.34" departed="0" arrived="103" entered="103" left="0" laneChangedFrom="0" laneChangedTo="0"/>
        <edge id="-330" sampledSeconds="0.00" departed="0" arrived="0" entered="0" left="0" laneChangedFrom="0" laneChangedTo="0"/>
        <edge id="-331" sampledSeconds="0.00" departed="0" arrived="0" entered="0" left="0" laneChangedFrom="0" laneChangedTo="0"/>
    </interval>
</meandata>
